% Model:              wallflowiter.mph
% Version:            COMSOL 4.2.1.110
% Date:               Apr 18 2012, 07:49
% Table:              Table 3 - 
% windSpeed              Pressure (Pa)            Pressure (Pa)            Pressure (Pa)            Pressure (Pa)            Pressure (Pa)            Pressure (Pa)            Pressure (Pa)            Pressure (Pa)
0.5                      101000.71400337525       100999.8998268574        100999.95886440478       100999.95758188596       100999.95714387622       100999.95668598037       100999.99498915537       101000.00082164143
1                        101002.84067480332       100999.56525174687       100999.81156053406       100999.80675661004       100999.80499907228       100999.8036065702        100999.97011779495       100999.99683038579
1.5                      101006.39143196854       100999.01562995944       100999.57308032006       100999.56207849228       100999.55827218456       100999.55513231613       100999.93332896766       100999.99204884697
2                        101011.34815583828       100998.21944782282       100999.21996374834       100999.19996021621       100999.193271115         100999.18925886146       100999.879007026         100999.98573895264
2.5                      101017.7311874751        100997.21967502183       100998.78006812494       100998.74896353189       100998.7385180909        100998.7302483485        100999.80903105014       100999.97632368737
3                        101025.52342643941       100995.97901806369       100998.23044670663       100998.18571228802       100998.17064097943       100998.15860195419       100999.72254806066       100999.96554003141
3.5                      101034.81318817023       100994.6258676565        100997.61165362598       100997.54478793431       100997.5227718215        100997.5120048467        100999.69932966895       101000.03450949972