% Model:              walltest.mph
% Version:            COMSOL 4.2.1.110
% Date:               Apr 18 2012, 15:20
% Table:              Table 4 - 
% windSpeed              Pressure (Pa)            Pressure (Pa)            Pressure (Pa)            Pressure (Pa)            Pressure (Pa)            Pressure (Pa)            Pressure (Pa)            Pressure (Pa)
0.5                      101000.61278664514       100999.73886706578       100999.81509564168       100999.81047396194       100999.80951579749       100999.8535830146        100999.96746583754       100999.97280271041
1                        101002.41254040366       100998.8340654327        100999.12996645925       100999.1053266195        100999.10236266867       100999.41721756411       100999.77076530164       100999.77399180566
1.5                      101005.43363294344       100997.38078554615       100998.04636871083       100997.99089689364       100997.98425600327       100998.69373937712       100999.48544977712       100999.49246085814
2                        101009.66567148454       100995.34804475136       100996.53113814525       100996.43243350118       100996.42064336858       100997.6835452454        100999.08640441431       100999.09871345853
2.5                      101015.10775302054       100992.73522190028       100994.5836368344        100994.42938015693       100994.41098468186       100996.38533692395       100998.57354847454       100998.59258178662
3                        101021.75969538867       100989.5422358375        100992.20381727992       100991.98168054545       100991.95520388936       100994.79912550484       100997.94688190187       100997.97418466627
3.5                      101029.62011961539       100985.76786662759       100989.39051062388       100989.08808314842       100989.0520615899        100992.92380072504       100997.20617238434       100997.2432794606
4                        101038.67852145527       100981.40263981758       100986.13559428797       100985.74006559704       100985.69288455677       100990.7520283524        100996.34920058427       100996.39833672754
4.5                      101048.97637431987       100976.48331173703       100982.47139565782       100981.9718142785        100981.91232161061       100988.31354979631       100995.38440550778       100995.44530648287
5                        101060.46734701049       100970.96941630136       100978.36225278763       100977.7459649166        100977.67253911175       100985.57414213383       100994.30162195922       100994.37707480429
5.5                      101073.13899274322       100964.8529979317        100973.79968487434       100973.05307845482       100972.9640841115        100982.52182547224       100993.10119358954       100993.19323897354
6                        101087.08587384487       100958.2050703642        100968.85000389173       100967.9611060603        100967.85537046536       100979.24066488483       100991.79767916215       100991.90536008516
6.5                      101102.21379178694       100950.95819160517       100963.44854142876       100962.40582568003       100962.28192231597       100975.64194166809       100990.37779966345       100990.5071015719
7                        101118.63114448552       100943.20163832276       100957.68441136842       100956.47772151793       100956.33393407229       100971.8349182992        100988.88874626668       100989.03555070443
7.5                      101136.0626396256        100934.68798526919       100951.32127632014       100949.93148979417       100949.76630107185       100967.55809674741       100987.18425899836       100987.35270918492
8                        101154.82133576414       100925.69852068368       100944.6226303649        100943.04245239109       100942.85461121272       100963.09664762483       100985.41866217856       100985.61097654523
8.5                      101174.84890027234       100916.18459037454       100937.54644078341       100935.77140646541       100935.56045974407       100958.39143623748       100983.55369718911       100983.7676770828
9                        101195.97490332893       100905.98620005173       100929.93602638696       100927.93595257492       100927.69832628721       100953.32295674573       100981.55482896115       100981.79653538823
9.5                      101218.34532214208       100895.23969068163       100921.92670981852       100919.69620992156       100919.43083771333       100947.98692761721       100979.44729642913       100979.71450421448
10                       101241.61091135704       100883.68397130017       100913.26453094977       100910.80043012585       100910.50742824678       100942.05263016146       100977.1717921874        100977.48594379006
10.5                     101271.37151291489       100885.9594817521        100919.5944635384        100917.5555352204        100917.13311463557       100936.48151151124       100986.7788874084        100989.14474106341
11                       101297.84523565238       100874.85166881651       100911.76578442074       100909.52798740829       100909.0643263387        100930.29650839789       100985.47450521463       100988.07066728946
11.5                     101324.94077297034       100862.62289874788       100902.96205153734       100900.50481962177       100899.99800784569       100923.42712728272       100984.62162041485       100987.41702685777
12                       101354.51700756095       100851.12521365414       100895.0586168559        100892.39732307706       100891.84540954155       100917.0919872064        100982.67323741796       100985.75477486322
12.5                     101384.71099180874       100838.49761596687       100886.1688075721        100883.2819383401        100882.68296211842       100910.06856973463       100981.19951595074       100984.54076707522
13                       101415.96958735885       100825.17981110128       100876.7386685623        100873.6140207183        100872.96659261557       100902.61867083002       100979.70674109328       100983.33602122516
13.5                     101448.6784004193        100811.57291422684       100867.17568611047       100863.8073777842        100863.10895540097       100895.06466049956       100978.10861514023       100982.02021274847
14                       101482.3936971694        100797.20140702004       100856.99368058454       100853.36867787295       100852.61742542381       100887.04800849062       100976.5114029084        100980.71323894805
14.5                     101517.48282208444       100782.47480694379       100846.61808067148       100842.71169105875       100841.90512157802       100878.86214987178       100974.80697518456       100979.30643303784
15                       101553.83474972613       100767.28629063834       100835.9323713171        100831.77105092908       100830.90869626982       100870.38766675458       100973.01219719676       100977.83450784796
15.5                     101591.76262139478       100751.87009508991       100825.17154263525       100820.71917149122       100819.79922649627       100861.99381119593       100971.5030703301        100976.62929122597
16                       101630.02201671238       100735.08696729096       100813.18682510118       100808.4507305878        100807.47027121756       100852.4341264882        100969.34397622616       100974.84280159824
16.5                     101669.89904597882       100718.15117712156       100801.20530643973       100796.16814083241       100795.12576325005       100842.95564530883       100967.36223556576       100973.231511723
17                       101711.13812619679       100700.93973254437       100789.13106042898       100783.81179487506       100782.7042463395        100833.33551997325       100965.25453132247       100971.54639378669
17.5                     101753.9249195272        100683.35696289955       100776.78780294565       100771.14154044793       100769.96943210845       100823.61101733471       100963.17333179741       100969.77754523176
18                       101797.45212239295       100664.80012688313       100763.64590153223       100757.6519277724        100756.41058202246       100813.30983871466       100961.21414195665       100968.13813898216
18.5                     101842.63141630834       100646.20128501808       100750.6179898632        100744.29380840677       100742.98251074327       100802.98261869967       100958.96939948732       100966.31521200888
19                       101888.69004666038       100626.70888068384       100736.84546132413       100730.17191768852       100728.78871500946       100792.11055682102       100956.71343553296       100964.4690682097
19.5                     101935.71786667229       100606.45012129474       100722.46394307511       100715.4239872075        100713.96619190679       100780.77389032561       100954.40481292088       100962.52142313133
20                       101984.53120772248       100586.19122986714       100708.22238489785       100700.82227249577       100699.28978661615       100769.53459429767       100952.1243611816        100960.70558734964
20.5                     102034.62372596229       100565.52544998993       100693.73765160434       100685.97329937006       100684.36383857754       100758.01554199589       100949.5810541491        100958.62990114458
21                       102085.68765236842       100544.02745496313       100678.57038711513       100670.41130271764       100668.72068848548       100746.11679667297       100947.17366840276       100956.60305039053
21.5                     102137.78402137838       100521.83453795366       100662.85838670039       100654.30750756011       100652.53634386517       100733.70262946532       100944.66833269215       100954.56716300783
22                       102192.48117315315       100500.54633748073       100648.22877630065       100639.28390554851       100637.42779839605       100722.1692224044        100942.1798737627        100952.55746374786
22.5                     102246.22653374734       100476.48938129527       100630.91797130335       100621.5398223631        100619.59760616033       100708.47054354669       100939.31507313557       100950.1230594769
23                       102299.97448590485       100450.6645905261        100612.00874081459       100601.89066713305       100599.82467061443       100694.01490469972       100936.56696883442       100947.63555377314
23.5                     102359.11853166367       100428.50350328324       100596.98075928813       100586.75292000457       100584.63652983977       100681.6986638774        100933.84003008225       100945.65629510471
24                       102417.59230579235       100403.96641625057       100579.69039313999       100569.02822315597       100566.82131769386       100668.06008990303       100931.14454287151       100943.46694248808